version 3
run General-0-20250504-11:17:43-13604
attr configname General
attr datetime 20250504-11:17:43
attr datetimef 20250504-111743
attr experiment General
attr inifile omnetpp.ini
attr iterationvars ""
attr iterationvarsd ""
attr iterationvarsf ""
attr measurement ""
attr network BangaloreScenario
attr processid 13604
attr repetition 0
attr replication #0
attr resultdir results
attr runnumber 0
attr seedset 0
config image-path ../../../../../../../OneDrive/Desktop/veins/images
config network BangaloreScenario
config sim-time-limit 3600s
config *.manager.updateInterval 0.1s
config *.manager.host "\"localhost\""
config *.manager.port 9999
config *.manager.moduleType "\"org.car2x.veins.nodes.Car\""
config *.manager.moduleName "\"node\""
config *.manager.autoShutdown true
config *.manager.launchConfig "xmldoc(\"bangalore.launchd.xml\")"
config *.**.BangaloreScenario.worldUtility.playgroundSizeX 3000m
config *.**.BangaloreScenario.worldUtility.playgroundSizeY 3000m
config *.**.BangaloreScenario.worldUtility.playgroundSizeZ 50m
config *.**.BangaloreScenar.playgroundSizeX 3000m
config *.**.BangaloreScenar.playgroundSizeY 3000m
config *.**.BangaloreScenar.playgroundSizeZ 50m
config *.node[*].mobilityType "\"org.car2x.veins.modules.mobility.traci.TraCIMobility\""
config *.node[*].mobility.updateInterval 0.1s
config *.node[*].applType "\"bangalore_v2v.MyBangaloreApp.MyBangaloreApp\""
config *.node[*].nicType "\"org.car2x.veins.modules.nic.Nic80211p\""
config *.node[*].nic.phy80211p.usePropagationDelay true
config *.node[*].nic.phy80211p.thermalNoise -110dBm
config *.node[*].nic.phy80211p.sensitivity -89dBm
config *.node[*].nic.phy80211p.maxTXPower 20mW
config *.node[*].nic.mac1609_4.useServiceChannel false
config *.node[*].nic.mac1609_4.txPower 10mW
config *.node[*].nic.mac1609_4.bitrate 6Mbps
config *.node[*].veinsmobility.x 0
config *.node[*].veinsmobility.y 0
config *.node[*].veinsmobility.z 0
config *.node[*].appl.broadcastInterval 1s
config BangaloreScenario.numCars 0
config *.**.nic.phy80211p.decider "xmldoc(\"config.xml\")"
config *.**.nic.phy80211p.analogueModels "xmldoc(\"config.xml\")"
config *.**.nic.phy80211p.useNoiseFloor true
config *.**.nic.phy80211p.noiseFloor 0dBm
config *.**.nic.phy80211p.minPowerLevel 0dBm
config *.connectionManager.sendDirect false
config *.connectionManager.maxInterfDist 2500m

vector 0 BangaloreScenario.node[0].nic.phy80211p RadioState ETV
vector 1 BangaloreScenario.node[0].nic.phy80211p RadioChannel ETV
vector 2 BangaloreScenario.manager posx ETV
vector 3 BangaloreScenario.manager posy ETV
vector 4 BangaloreScenario.manager speed ETV
vector 5 BangaloreScenario.manager acceleration ETV
vector 6 BangaloreScenario.manager co2emission ETV
vector 7 BangaloreScenario.node[1].nic.phy80211p RadioState ETV
vector 8 BangaloreScenario.node[1].nic.phy80211p RadioChannel ETV
vector 9 BangaloreScenario.manager posx ETV
vector 10 BangaloreScenario.manager posy ETV
vector 11 BangaloreScenario.manager speed ETV
vector 12 BangaloreScenario.manager acceleration ETV
vector 13 BangaloreScenario.manager co2emission ETV
vector 14 BangaloreScenario.node[2].nic.phy80211p RadioState ETV
vector 15 BangaloreScenario.node[2].nic.phy80211p RadioChannel ETV
vector 16 BangaloreScenario.manager posx ETV
vector 17 BangaloreScenario.manager posy ETV
vector 18 BangaloreScenario.manager speed ETV
vector 19 BangaloreScenario.manager acceleration ETV
vector 20 BangaloreScenario.manager co2emission ETV
6	4	0.3	1.4276208928798
6	5	0.4	1.5553504369406
6	6	0.5	1.6547258140606
6	7	0.6	1.7983555805977
6	8	0.7	1.8323674505787
6	17	0.8	2.0110897446338
6	18	0.9	1.970451684244
6	19	1	2.244901373431
6	20	1.1	2.2119208452933
6	21	1.2	2.2548819012347
6	22	1.3	2.5345448660167
6	23	1.4	2.6013847819414
6	24	1.5	2.852151772081
6	25	1.6	2.3526342216865
6	26	1.7	3.339605186172
6	29	1.8	2.4276646371033
6	30	1.9	3.3234379637286
6	31	2	3.3108190720898
6	32	2.1	3.2988402737822
6	33	2.2	2.9578171889378
6	34	2.3	2.9959376211745
6	35	2.4	3.4908200907348
6	36	2.5	3.6670806850063
6	37	2.6	3.6268696198063
6	38	2.7	4.0205201967415
6	41	2.8	3.1988957479633
6	42	2.9	3.4137976506977
6	43	3	4.907912272511
6	44	3.1	4.5496391886597
6	45	3.2	5.1843707050129
6	46	3.3	4.1693986672107
6	47	3.4	5.6101076366628
6	48	3.5	5.0020310617087
6	49	3.6	4.0626847333335
6	50	3.7	3.8401948998282
6	53	3.8	4.3141859897661
6	54	3.9	5.9388528208016
6	55	4	4.2651793352288
6	56	4.1	4.3265655158527
6	57	4.2	4.1097063864491
6	58	4.3	5.4862156132822
6	59	4.4	4.7175385060907
6	60	4.5	4.7821076581853
6	61	4.6	5.7991102751104
6	62	4.7	5.7403782632813
6	65	4.8	5.0854349763795
6	66	4.9	5.4579137069299
6	67	5	7.2445125326224
6	68	5.1	5.5316372922509
6	69	5.2	5.8644579208101
6	70	5.3	7.5536193889736
6	71	5.4	5.0791604404098
6	72	5.5	6.5364187354579
6	73	5.6	7.0045635152892
6	74	5.7	7.6444874505582
6	88	5.8	5.9876738808403
6	89	5.9	7.1974356508507
6	90	6	6.9024583276427
6	91	6.1	9.0449607537194
6	92	6.2	6.9537342900901
6	93	6.3	7.0685118212933
6	94	6.4	7.1441868477366
6	95	6.5	5.9544650720525
6	96	6.6	7.0518984287331
6	97	6.7	8.4426639620911
6	102	6.8	8.2525997329618
6	103	6.9	7.2838220812519
6	104	7	10.07311532186
6	105	7.1	7.6293715079774
6	106	7.2	7.7021525738091
6	107	7.3	9.8282001084251
6	108	7.4	10.350756921214
6	109	7.5	9.6623103089921
6	110	7.6	9.5765848190507
6	111	7.7	8.7364404973399
6	116	7.8	9.4669150119575
6	117	7.9	6.9441977155361
6	118	8	11.312966666609
6	119	8.1	6.9409714920967
6	120	8.2	2.4307031911611
6	121	8.3	0.973
6	122	8.4	4.1366932740088
6	123	8.5	1.1646325964275
6	124	8.6	3.2743774235399
6	125	8.7	2.6145549522391
6	130	8.8	2.4365468229022
6	131	8.9	0.973
6	132	9	4.7144456910655
6	133	9.1	1.9161879988244
6	134	9.2	1.3631943872091
6	135	9.3	0.973
6	136	9.4	5.7145903979742
6	137	9.5	0.973
6	138	9.6	5.8017850365402
6	139	9.7	0.973
6	144	9.8	4.6525264334099
6	145	9.9	0.973
6	146	10	3.990888579689
6	147	10.1	1.5424138920403
6	148	10.2	5.601504914265
6	149	10.3	0.973
6	150	10.4	0.973
6	151	10.5	3.5284511222148
6	152	10.6	1.1655524366761
6	153	10.7	6.7320048669215
6	158	10.8	1.5792513603557
6	159	10.9	1.3537095720496
6	160	11	0.973
6	175	11.1	6.3353299004295
6	176	11.2	1.7657197313646
6	177	11.3	2.8987464069546
6	178	11.4	0.973
6	179	11.5	3.219678203591
6	180	11.6	1.2201657556145
6	181	11.7	2.4023305254692
6	186	11.8	0.973
6	187	11.9	3.5181108994404
6	188	12	0.973
6	191	12.1	4.112832311305
6	192	12.2	0.973
6	193	12.3	4.263673847392
6	194	12.4	2.7108736514642
6	195	12.5	0.973
6	196	12.6	2.9716189553514
6	197	12.7	3.7516088731582
6	202	12.8	1.0390294247169
6	203	12.9	0.973
6	204	13	5.343367006436
6	207	13.1	3.1839195667895
6	208	13.2	0.973
6	209	13.3	1.5351570352426
6	210	13.4	1.0149664187492
6	211	13.5	4.6003713320311
6	212	13.6	2.002451131112
6	213	13.7	1.7033390289585
6	218	13.8	2.8154465924903
6	219	13.9	3.6088820949965
6	220	14	0.973
6	223	14.1	5.7932042661766
6	224	14.2	0.973
6	225	14.3	2.0825677596304
6	226	14.4	2.6010410612159
6	227	14.5	0.973
6	228	14.6	2.9889892671546
6	229	14.7	4.5685335329942
6	234	14.8	3.2718832614798
6	235	14.9	0.973
6	236	15	3.0370456832944
6	239	15.1	0.973
6	240	15.2	2.2443131132077
6	241	15.3	2.046399082009
6	242	15.4	6.1310029374041
6	243	15.5	2.4251015682109
6	244	15.6	1.5654313276106
6	245	15.7	0.973
6	250	15.8	5.9858826598055
6	251	15.9	0.973
6	252	16	0.973
6	255	16.1	4.2484283836516
6	256	16.2	1.4255264606232
6	257	16.3	4.0211128990178
6	258	16.4	0.973
6	259	16.5	1.4754037999394
5	4	0.3	2.4479752470855
5	5	0.4	2.3290637582572
5	6	0.5	2.1818481258762
5	7	0.6	2.2357036410334
5	8	0.7	1.9855717337837
5	17	0.8	2.1556800054752
5	18	0.9	1.8177961522857
5	19	1	2.1703654659723
5	20	1.1	1.8999668675033
5	21	1.2	1.8135391334582
5	22	1.3	2.1003037793096
5	23	1.4	2.0311366270296
5	24	1.5	2.213205013168
5	25	1.6	1.4406950977165
5	26	1.7	2.5262731315568
5	29	1.8	1.3472384067252
5	30	1.9	2.2455468171276
5	31	2	2.1015260222834
5	32	2.1	1.979035354848
5	33	2.2	1.5707574565429
5	34	2.3	1.5441806555958
5	35	2.4	1.9124366020085
5	36	2.5	1.9760296771768
5	37	2.6	1.861542067118
5	38	2.7	2.0893797688885
5	41	2.8	1.3967243768042
5	42	2.9	1.5130976005224
5	43	3	2.5076531236758
5	44	3.1	2.16138498988
5	45	3.2	2.4867319139419
5	46	3.3	1.7573765604757
5	47	3.4	2.5737160811434
5	48	3.5	2.121286001429
5	49	3.6	1.5175942043075
5	50	3.7	1.3556982993847
5	53	3.8	1.5883962160442
5	54	3.9	2.4175439893501
5	55	4	1.4689842111664
5	56	4.1	1.4688865736127
5	57	4.2	1.3277961542364
5	58	4.3	1.9843095479766
5	59	4.4	1.5610938670114
5	60	4.5	1.5588160217507
5	61	4.6	2.0000768283615
5	62	4.7	1.9233792753657
5	65	4.8	1.5853120716521
5	66	4.9	1.71745660624
5	67	5	2.4462432491127
5	68	5.1	1.6631775529357
5	69	5.2	1.7681026779115
5	70	5.3	2.413640728849
5	71	5.4	1.3719304058002
5	72	5.5	1.9215971733676
5	73	5.6	2.0609394765459
5	74	5.7	2.2560777051607
5	88	5.8	1.5934962075436
5	89	5.9	2.0070045632543
5	90	6	1.8610358671751
5	91	6.1	2.5755732625723
5	92	6.2	1.7970738488948
5	93	6.3	1.8042755607981
5	94	6.4	1.7979858017527
5	95	6.5	1.3731275021331
5	96	6.6	1.7136336127995
5	97	6.7	2.1326397273224
5	102	6.8	2.0318584615365
5	103	6.9	1.6930794459535
5	104	7	2.5217068935512
5	105	7.1	1.7332032753387
5	106	7.2	1.7281707641901
5	107	7.3	2.3265026698355
5	108	7.4	2.4323958121473
5	109	7.5	2.1899431454483
5	110	7.6	2.1271759945666
5	111	7.7	1.8587441912619
5	116	7.8	2.0298180325888
5	117	7.9	1.3151140186004
5	118	8	2.4673417511396
5	119	8.1	1.271155466898
5	120	8.2	0.06183742163703
5	121	8.3	-0.63933845416177
5	122	8.4	0.51976173697039
5	123	8.5	-0.27692492294591
5	124	8.6	0.28845074018463
5	125	8.7	0.11109280204401
5	130	8.8	0.063172781513998
5	131	8.9	-0.70974078867584
5	132	9	0.6735906352289
5	133	9.1	-0.075919229350969
5	134	9.2	-0.22378565173131
5	135	9.3	-0.58794848474209
5	136	9.4	0.94105954768603
5	137	9.5	-0.96309672617354
5	138	9.6	0.96440045721829
5	139	9.7	-1.1444693833357
5	144	9.8	0.66015074697789
5	145	9.9	-0.66054286023137
5	146	10	0.48349024462514
5	147	10.1	-0.17474348233081
5	148	10.2	0.910098530096
5	149	10.3	-0.49118447231594
5	150	10.4	-0.75421165260487
5	151	10.5	0.35991841449867
5	152	10.6	-0.27590273348613
5	153	10.7	1.2121758741559
5	158	10.8	-0.16641308669932
5	159	10.9	-0.22647055597044
5	160	11	-0.90572033193894
5	175	11.1	1.1079700096976
5	176	11.2	-0.11613300882747
5	177	11.3	0.18687549494208
5	178	11.4	-0.39551476978232
5	179	11.5	0.27341666931752
5	180	11.6	-0.26214568761642
5	181	11.7	0.055055019678534
5	186	11.8	-0.42144090987275
5	187	11.9	0.35487214322201
5	188	12	-0.70040308514145
5	191	12.1	0.51573904294056
5	192	12.2	-0.39974244222977
5	193	12.3	0.55525131891482
5	194	12.4	0.13769730788191
5	195	12.5	-0.48352978399491
5	196	12.6	0.20887273936534
5	197	12.7	0.41612468783278
5	202	12.8	-0.31070083819795
5	203	12.9	-0.56506390622818
5	204	13	0.84310228205286
5	207	13.1	0.26284651129973
5	208	13.2	-0.65913420461584
5	209	13.3	-0.17686968045309
5	210	13.4	-0.31654286929408
5	211	13.5	0.6456543835113
5	212	13.6	-0.051870006322865
5	213	13.7	-0.13193052359856
5	218	13.8	0.16638863440603
5	219	13.9	0.37740512308664
5	220	14	-1.0383631153731
5	223	14.1	0.9633342051413
5	224	14.2	-0.75437407786959
5	225	14.3	-0.029061930137679
5	226	14.4	0.11020627217368
5	227	14.5	-0.32797837927939
5	228	14.6	0.21515528918245
5	229	14.7	0.63613331411034
5	234	14.8	0.28681038678624
5	235	14.9	-0.77937834870536
5	236	15	0.22642108930739
5	239	15.1	-0.4657075772062
5	240	15.2	0.014779571001426
5	241	15.3	-0.038462344091386
5	242	15.4	1.0524311938323
5	243	15.5	0.059786249673923
5	244	15.6	-0.17000832990743
5	245	15.7	-0.92080570613033
5	250	15.8	1.0137343682116
5	251	15.9	-0.41958901959005
5	252	16	-0.69781648465433
5	255	16.1	0.55214151544497
5	256	16.2	-0.20632537042257
5	257	16.3	0.48926992246416
5	258	16.4	-0.48228087795433
5	259	16.5	-0.19256217349321
4	3	0.2	0.25286542447004
4	4	0.3	0.49766294917859
4	5	0.4	0.73056932500431
4	6	0.5	0.94875413759194
4	7	0.6	1.1723245016953
4	8	0.7	1.3708816750736
4	17	0.8	1.5864496756212
4	18	0.9	1.7682292908497
4	19	1	1.985265837447
4	20	1.1	2.1752625241973
4	21	1.2	2.3566164375431
4	22	1.3	2.5666468154741
4	23	1.4	2.769760478177
4	24	1.5	2.9910809794938
4	25	1.6	3.1351504892655
4	26	1.7	3.3877778024212
4	29	1.8	3.5225016430937
4	30	1.9	3.7470563248065
4	31	2	3.9572089270348
4	32	2.1	4.1551124625196
4	33	2.2	4.3121882081739
4	34	2.3	4.4666062737335
4	35	2.4	4.6578499339343
4	36	2.5	4.855452901652
4	37	2.6	5.0416071083638
4	38	2.7	5.2505450852527
4	41	2.8	5.3902175229331
4	42	2.9	5.5415272829853
4	43	3	5.7922925953529
4	44	3.1	6.0084310943409
4	45	3.2	6.2571042857351
4	46	3.3	6.4328419417827
4	47	3.4	6.690213549897
4	48	3.5	6.9023421500399
4	49	3.6	7.0541015704707
4	50	3.7	7.1896714004091
4	53	3.8	7.3485110220135
4	54	3.9	7.5902654209486
4	55	4	7.7371638420652
4	56	4.1	7.8840524994265
4	57	4.2	8.0168321148501
4	58	4.3	8.2152630696478
4	59	4.4	8.3713724563489
4	60	4.5	8.527254058524
4	61	4.6	8.7272617413601
4	62	4.7	8.9195996688967
4	65	4.8	9.0781308760619
4	66	4.9	9.2498765366859
4	67	5	9.4945008615972
4	68	5.1	9.6608186168907
4	69	5.2	9.8376288846819
4	70	5.3	10.078992957567
4	71	5.4	10.216185998147
4	72	5.5	10.408345715484
4	73	5.6	10.614439663138
4	74	5.7	10.840047433654
4	88	5.8	10.999397054409
4	89	5.9	11.200097510734
4	90	6	11.386201097452
4	91	6.1	11.643758423709
4	92	6.2	11.823465808598
4	93	6.3	12.003893364678
4	94	6.4	12.183691944853
4	95	6.5	12.321004695067
4	96	6.6	12.492368056347
4	97	6.7	12.705632029079
4	102	6.8	12.908817875232
4	103	6.9	13.078125819828
4	104	7	13.330296509183
4	105	7.1	13.503616836717
4	106	7.2	13.676433913136
4	107	7.3	13.909084180119
4	108	7.4	14.152323761334
4	109	7.5	14.371318075879
4	110	7.6	14.584035675336
4	111	7.7	14.769910094462
4	116	7.8	14.972891897721
4	117	7.9	15.104403299581
4	118	8	15.351137474695
4	119	8.1	15.478253021384
4	120	8.2	15.484436763548
4	121	8.3	15.420502918132
4	122	8.4	15.472479091829
4	123	8.5	15.444786599534
4	124	8.6	15.473631673553
4	125	8.7	15.484740953757
4	130	8.8	15.491058231909
4	131	8.9	15.420084153041
4	132	9	15.487443216564
4	133	9.1	15.479851293629
4	134	9.2	15.457472728456
4	135	9.3	15.398677879982
4	136	9.4	15.49278383475
4	137	9.5	15.396474162133
4	138	9.6	15.492914207855
4	139	9.7	15.378467269521
4	144	9.8	15.444482344219
4	145	9.9	15.378428058196
4	146	10	15.426777082658
4	147	10.1	15.409302734425
4	148	10.2	15.500312587435
4	149	10.3	15.451194140203
4	150	10.4	15.375772974943
4	151	10.5	15.411764816393
4	152	10.6	15.384174543044
4	153	10.7	15.50539213046
4	158	10.8	15.48875082179
4	159	10.9	15.466103766193
4	160	11	15.375531732999
4	175	11.1	15.486328733968
4	176	11.2	15.474715433086
4	177	11.3	15.49340298258
4	178	11.4	15.453851505602
4	179	11.5	15.481193172533
4	180	11.6	15.454978603772
4	181	11.7	15.46048410574
4	186	11.8	15.418340014752
4	187	11.9	15.453827229075
4	188	12	15.38378692056
4	191	12.1	15.435360824854
4	192	12.2	15.395386580631
4	193	12.3	15.450911712523
4	194	12.4	15.464681443311
4	195	12.5	15.416328464912
4	196	12.6	15.437215738848
4	197	12.7	15.478828207631
4	202	12.8	15.447758123812
4	203	12.9	15.391251733189
4	204	13	15.475561961394
4	207	13.1	15.501846612524
4	208	13.2	15.435933192063
4	209	13.3	15.418246224017
4	210	13.4	15.386591937088
4	211	13.5	15.451157375439
4	212	13.6	15.445970374807
4	213	13.7	15.432777322447
4	218	13.8	15.449416185887
4	219	13.9	15.487156698196
4	220	14	15.383320386659
4	223	14.1	15.479653807173
4	224	14.2	15.404216399386
4	225	14.3	15.401310206372
4	226	14.4	15.41233083359
4	227	14.5	15.379532995662
4	228	14.6	15.40104852458
4	229	14.7	15.464661855991
4	234	14.8	15.49334289467
4	235	14.9	15.415405059799
4	236	15	15.43804716873
4	239	15.1	15.391476411009
4	240	15.2	15.392954368109
4	241	15.3	15.3891081337
4	242	15.4	15.494351253083
4	243	15.5	15.500329878051
4	244	15.6	15.48332904506
4	245	15.7	15.391248474447
4	250	15.8	15.492621911268
4	251	15.9	15.450663009309
4	252	16	15.380881360844
4	255	16.1	15.436095512388
4	256	16.2	15.415462975346
4	257	16.3	15.464389967592
4	258	16.4	15.416161879797
4	259	16.5	15.396905662448
3	2	0.1	123.4
3	3	0.2	123.4
3	4	0.3	123.4
3	5	0.4	123.4
3	6	0.5	123.4
3	7	0.6	123.4
3	8	0.7	123.4
3	17	0.8	123.4
3	18	0.9	123.4
3	19	1	123.4
3	20	1.1	123.4
3	21	1.2	123.4
3	22	1.3	123.4
3	23	1.4	123.4
3	24	1.5	123.4
3	25	1.6	123.4
3	26	1.7	123.4
3	29	1.8	123.4
3	30	1.9	123.4
3	31	2	123.4
3	32	2.1	123.4
3	33	2.2	123.4
3	34	2.3	123.4
3	35	2.4	123.4
3	36	2.5	123.4
3	37	2.6	123.4
3	38	2.7	123.4
3	41	2.8	123.4
3	42	2.9	123.4
3	43	3	123.4
3	44	3.1	123.4
3	45	3.2	123.4
3	46	3.3	123.4
3	47	3.4	123.4
3	48	3.5	123.4
3	49	3.6	123.4
3	50	3.7	123.4
3	53	3.8	123.4
3	54	3.9	123.4
3	55	4	123.4
3	56	4.1	123.4
3	57	4.2	123.4
3	58	4.3	123.4
3	59	4.4	123.4
3	60	4.5	123.4
3	61	4.6	123.4
3	62	4.7	123.4
3	65	4.8	123.4
3	66	4.9	123.4
3	67	5	123.4
3	68	5.1	123.4
3	69	5.2	123.4
3	70	5.3	123.4
3	71	5.4	123.4
3	72	5.5	123.4
3	73	5.6	123.4
3	74	5.7	123.4
3	88	5.8	123.4
3	89	5.9	123.4
3	90	6	123.4
3	91	6.1	123.4
3	92	6.2	123.4
3	93	6.3	123.4
3	94	6.4	123.4
3	95	6.5	123.4
3	96	6.6	123.4
3	97	6.7	123.4
3	102	6.8	123.4
3	103	6.9	123.4
3	104	7	123.4
3	105	7.1	123.4
3	106	7.2	123.4
3	107	7.3	123.4
3	108	7.4	123.4
3	109	7.5	123.4
3	110	7.6	123.4
3	111	7.7	123.4
3	116	7.8	123.4
3	117	7.9	123.4
3	118	8	123.4
3	119	8.1	123.4
3	120	8.2	123.4
3	121	8.3	123.4
3	122	8.4	123.4
3	123	8.5	123.4
3	124	8.6	123.4
3	125	8.7	123.4
3	130	8.8	123.4
3	131	8.9	123.4
3	132	9	123.4
3	133	9.1	123.4
3	134	9.2	123.4
3	135	9.3	123.4
3	136	9.4	123.4
3	137	9.5	123.4
3	138	9.6	123.4
3	139	9.7	123.4
3	144	9.8	123.4
3	145	9.9	123.4
3	146	10	123.4
3	147	10.1	123.4
3	148	10.2	126.6
3	149	10.3	126.6
3	150	10.4	126.6
3	151	10.5	126.6
3	152	10.6	126.6
3	153	10.7	126.6
3	158	10.8	126.6
3	159	10.9	126.6
3	160	11	126.6
3	175	11.1	126.6
3	176	11.2	126.6
3	177	11.3	126.6
3	178	11.4	126.6
3	179	11.5	126.6
3	180	11.6	126.6
3	181	11.7	126.6
3	186	11.8	126.6
3	187	11.9	126.6
3	188	12	126.6
3	191	12.1	126.6
3	192	12.2	126.6
3	193	12.3	126.6
3	194	12.4	126.6
3	195	12.5	126.6
3	196	12.6	126.6
3	197	12.7	126.6
3	202	12.8	126.6
3	203	12.9	126.6
3	204	13	126.6
3	207	13.1	126.6
3	208	13.2	126.6
3	209	13.3	126.6
3	210	13.4	126.6
3	211	13.5	126.6
3	212	13.6	126.6
3	213	13.7	126.6
3	218	13.8	126.6
3	219	13.9	126.6
3	220	14	126.6
3	223	14.1	126.6
3	224	14.2	126.6
3	225	14.3	126.6
3	226	14.4	126.6
3	227	14.5	126.6
3	228	14.6	126.6
3	229	14.7	126.6
3	234	14.8	126.6
3	235	14.9	126.6
3	236	15	126.6
3	239	15.1	126.6
3	240	15.2	126.6
3	241	15.3	126.6
3	242	15.4	126.6
3	243	15.5	126.6
3	244	15.6	126.6
3	245	15.7	126.6
3	250	15.8	126.6
3	251	15.9	126.6
3	252	16	126.6
3	255	16.1	126.6
3	256	16.2	126.6
3	257	16.3	126.6
3	258	16.4	126.6
3	259	16.5	126.6
2	2	0.1	30.1
2	3	0.2	30.125286542447
2	4	0.3	30.175052837365
2	5	0.4	30.248109769865
2	6	0.5	30.342985183624
2	7	0.6	30.460217633794
2	8	0.7	30.597305801301
2	17	0.8	30.755950768863
2	18	0.9	30.932773697948
2	19	1	31.131300281693
2	20	1.1	31.348826534113
2	21	1.2	31.584488177867
2	22	1.3	31.841152859415
2	23	1.4	32.118128907232
2	24	1.5	32.417237005182
2	25	1.6	32.730752054108
2	26	1.7	33.06952983435
2	29	1.8	33.42177999866
2	30	1.9	33.79648563114
2	31	2	34.192206523844
2	32	2.1	34.607717770096
2	33	2.2	35.038936590913
2	34	2.3	35.485597218287
2	35	2.4	35.95138221168
2	36	2.5	36.436927501845
2	37	2.6	36.941088212682
2	38	2.7	37.466142721207
2	41	2.8	38.0051644735
2	42	2.9	38.559317201799
2	43	3	39.138546461334
2	44	3.1	39.739389570768
2	45	3.2	40.365099999342
2	46	3.3	41.00838419352
2	47	3.4	41.67740554851
2	48	3.5	42.367639763514
2	49	3.6	43.073049920561
2	50	3.7	43.792017060602
2	53	3.8	44.526868162803
2	54	3.9	45.285894704898
2	55	4	46.059611089104
2	56	4.1	46.848016339047
2	57	4.2	47.649699550532
2	58	4.3	48.471225857497
2	59	4.4	49.308363103132
2	60	4.5	50.161088508984
2	61	4.6	51.03381468312
2	62	4.7	51.92577465001
2	65	4.8	52.833587737616
2	66	4.9	53.758575391284
2	67	5	54.708025477444
2	68	5.1	55.674107339133
2	69	5.2	56.657870227601
2	70	5.3	57.665769523358
2	71	5.4	58.687388123173
2	72	5.5	59.728222694721
2	73	5.6	60.789666661035
2	74	5.7	61.8736714044
2	88	5.8	62.973611109841
2	89	5.9	64.093620860915
2	90	6	65.23224097066
2	91	6.1	66.396616813031
2	92	6.2	67.57896339389
2	93	6.3	68.779352730358
2	94	6.4	69.997721924844
2	95	6.5	71.22982239435
2	96	6.6	72.479059199985
2	97	6.7	73.749622402893
2	102	6.8	75.040504190416
2	103	6.9	76.348316772399
2	104	7	77.681346423317
2	105	7.1	79.031708106989
2	106	7.2	80.399351498302
2	107	7.3	81.790259916314
2	108	7.4	83.205492292448
2	109	7.5	84.642624100036
2	110	7.6	86.101027667569
2	111	7.7	87.578018677015
2	116	7.8	89.075307866787
2	117	7.9	90.585748196746
2	118	8	92.120861944215
2	119	8.1	93.668687246353
2	120	8.2	95.217130922708
2	121	8.3	96.759181214521
2	122	8.4	98.306429123704
2	123	8.5	99.850907783658
2	124	8.6	101.39827095101
2	125	8.7	102.94674504639
2	130	8.8	104.49585086958
2	131	8.9	106.03785928488
2	132	9	107.58660360654
2	133	9.1	109.1345887359
2	134	9.2	110.68033600875
2	135	9.3	112.22020379675
2	136	9.4	113.76948218022
2	137	9.5	115.30912959644
2	138	9.6	116.85842101722
2	139	9.7	118.39626774417
2	144	9.8	119.94071597859
2	145	9.9	121.47855878441
2	146	10	123.02123649268
2	147	10.1	124.56216676612
2	148	10.2	123.88780197513
2	149	10.3	122.34268256111
2	150	10.4	120.80510526362
2	151	10.5	119.26392878198
2	152	10.6	117.72551132768
2	153	10.7	116.17497211463
2	158	10.8	114.62609703245
2	159	10.9	113.07948665583
2	160	11	111.54193348253
2	175	11.1	109.99330060913
2	176	11.2	108.44582906583
2	177	11.3	106.89648876757
2	178	11.4	105.35110361701
2	179	11.5	103.80298429975
2	180	11.6	102.25748643938
2	181	11.7	100.7114380288
2	186	11.8	99.169604027328
2	187	11.9	97.624221304421
2	188	12	96.085842612365
2	191	12.1	94.54230652988
2	192	12.2	93.002767871816
2	193	12.3	91.457676700564
2	194	12.4	89.911208556233
2	195	12.5	88.369575709742
2	196	12.6	86.825854135857
2	197	12.7	85.277971315094
2	202	12.8	83.733195502713
2	203	12.9	82.194070329394
2	204	13	80.646514133254
2	207	13.1	79.096329472002
2	208	13.2	77.552736152796
2	209	13.3	76.010911530394
2	210	13.4	74.472252336685
2	211	13.5	72.927136599141
2	212	13.6	71.382539561661
2	213	13.7	69.839261829416
2	218	13.8	68.294320210827
2	219	13.9	66.745604541008
2	220	14	65.207272502342
2	223	14.1	63.659307121624
2	224	14.2	62.118885481686
2	225	14.3	60.578754461049
2	226	14.4	59.03752137769
2	227	14.5	57.499568078124
2	228	14.6	55.959463225666
2	229	14.7	54.412997040066
2	234	14.8	52.863662750599
2	235	14.9	51.32212224462
2	236	15	49.778317527747
2	239	15.1	48.239169886646
2	240	15.2	46.699874449835
2	241	15.3	45.160963636465
2	242	15.4	43.611528511156
2	243	15.5	42.061495523351
2	244	15.6	40.513162618845
2	245	15.7	38.974037771401
2	250	15.8	37.424775580274
2	251	15.9	35.879709279343
2	252	16	34.341621143259
2	255	16.1	32.79801159202
2	256	16.2	31.256465294485
2	257	16.3	29.710026297726
2	258	16.4	28.168410109746
2	259	16.5	26.628719543501
vector 21 BangaloreScenario.node[3].nic.phy80211p RadioState ETV
vector 22 BangaloreScenario.node[3].nic.phy80211p RadioChannel ETV
vector 23 BangaloreScenario.manager posx ETV
vector 24 BangaloreScenario.manager posy ETV
vector 25 BangaloreScenario.manager speed ETV
vector 26 BangaloreScenario.manager acceleration ETV
vector 27 BangaloreScenario.manager co2emission ETV
13	70	5.3	1.4299841233112
13	71	5.4	1.5519746790579
13	72	5.5	1.7621283168574
13	73	5.6	1.8438989758713
13	74	5.7	2.0481139716075
13	88	5.8	1.9758639861538
13	89	5.9	2.2960062894986
13	90	6	2.4815415686056
13	91	6.1	2.4845236135846
13	92	6.2	2.7469638366633
13	93	6.3	2.8280222686086
13	94	6.4	2.7988456789923
13	95	6.5	2.3627762807454
13	96	6.6	2.9230315856295
13	97	6.7	2.8374767379135
13	102	6.8	2.5704348789152
13	103	6.9	3.6645181202792
13	104	7	2.634941647572
13	105	7.1	3.1242253058871
13	106	7.2	3.9181055870361
13	107	7.3	3.7751069887298
13	108	7.4	3.2671272151211
13	109	7.5	3.5745389084861
13	110	7.6	4.1494826506824
13	111	7.7	4.7947707634462
13	116	7.8	3.8474506739909
13	117	7.9	3.3182142333867
13	118	8	3.9632933540813
13	119	8.1	4.0830349551364
13	120	8.2	3.4319806168473
13	121	8.3	4.3450782034962
13	122	8.4	4.8018441741145
13	123	8.5	4.7816661926301
13	124	8.6	4.5472468258312
13	125	8.7	5.3083220838945
13	130	8.8	4.6189690805708
13	131	8.9	5.5871557362091
13	132	9	4.5448427672254
13	133	9.1	4.1768103095378
13	134	9.2	4.9808373116903
13	135	9.3	6.8212464244324
13	136	9.4	5.3007786358766
13	137	9.5	5.2472420120583
13	138	9.6	4.4786010581353
13	139	9.7	4.8021382867927
13	144	9.8	5.9532272389055
13	145	9.9	7.4422506828079
13	146	10	6.3764104529956
13	147	10.1	7.8674926911562
13	148	10.2	6.6645236893763
13	149	10.3	5.0028853871983
13	150	10.4	7.1314717284267
13	151	10.5	6.8409169787582
13	152	10.6	6.227127967923
13	153	10.7	5.6357934503678
13	158	10.8	5.5645301921607
13	159	10.9	8.168693613346
13	160	11	7.0236207750057
13	175	11.1	5.9996088737548
13	176	11.2	7.4168109312796
13	177	11.3	5.952633585747
13	178	11.4	5.9957609761733
13	179	11.5	9.3747847775993
13	180	11.6	8.7563444236352
13	181	11.7	10.00868376487
13	186	11.8	6.6991277840776
13	187	11.9	7.591399067969
13	188	12	6.8532210093219
13	191	12.1	9.4232086306433
13	192	12.2	8.979632010359
13	193	12.3	8.4112609766761
13	194	12.4	10.279927885303
13	195	12.5	9.4937856413119
13	196	12.6	3.7838371809871
13	197	12.7	0.973
13	202	12.8	1.479946351426
13	203	12.9	3.9834405472311
13	204	13	1.4336148709841
13	207	13.1	0.973
13	208	13.2	3.7289379963893
13	209	13.3	0.973
13	210	13.4	3.2552678005521
13	211	13.5	0.973
13	212	13.6	3.0474041856074
13	213	13.7	3.1405551018119
13	218	13.8	0.973
13	219	13.9	6.0264988772441
13	220	14	0.973
13	223	14.1	3.7066487444881
13	224	14.2	0.973
13	225	14.3	4.0318920179426
13	226	14.4	1.804861245007
13	227	14.5	0.973
13	228	14.6	3.8003469303377
13	229	14.7	1.7656676356045
13	234	14.8	2.6645785330806
13	235	14.9	3.4726163236993
13	236	15	1.3451561236597
13	239	15.1	1.073126974174
13	240	15.2	2.7450934703436
13	241	15.3	0.973
13	242	15.4	2.0841959870087
13	243	15.5	4.6269717260169
13	244	15.6	3.0718809871352
13	245	15.7	0.973
13	250	15.8	2.441071630493
13	251	15.9	1.7320446229157
13	252	16	3.2732852230818
13	255	16.1	3.0707142634265
13	256	16.2	1.6747233543911
13	257	16.3	2.7679191746448
13	258	16.4	0.973
13	259	16.5	3.7774121334567
13	260	16.6	3.8230044897492
13	261	16.7	0.973
13	264	16.8	2.6612763074063
13	265	16.9	0.973
13	266	17	3.5772475525296
13	283	17.1	1.6907113164679
13	284	17.2	4.1397023833579
13	285	17.3	2.1760114874317
13	286	17.4	1.3386351050369
13	287	17.5	0.973
13	288	17.6	4.677104303222
13	289	17.7	2.6382799547204
13	292	17.8	2.2328880991434
13	293	17.9	0.973
13	294	18	1.9942687056256
13	299	18.1	0.973
13	300	18.2	5.7998057426147
13	301	18.3	1.195238361849
13	302	18.4	0.973
13	303	18.5	4.8951100065808
13	304	18.6	2.8630531133648
13	305	18.7	2.0479265677098
13	308	18.8	0.973
13	309	18.9	4.4030542026292
13	310	19	1.803653799494
13	315	19.1	0.973
13	316	19.2	0.973
13	317	19.3	5.3062660191652
13	318	19.4	0.973
13	319	19.5	5.0293673922285
13	320	19.6	1.9417037409721
13	321	19.7	1.2158849361873
13	324	19.8	1.6683999619082
13	325	19.9	4.5185957747486
13	326	20	0.973
13	331	20.1	2.0525478762652
13	332	20.2	1.9085613325773
13	333	20.3	4.2245048137186
13	334	20.4	0.973
13	335	20.5	1.5872781701835
13	336	20.6	4.8195078116751
13	337	20.7	0.973
13	340	20.8	0.973
13	341	20.9	3.3657488099305
13	342	21	3.7580509238365
13	347	21.1	0.973
13	348	21.2	1.5084927104251
13	349	21.3	2.7668505262154
13	350	21.4	0.973
13	351	21.5	3.7145737575403
13	352	21.6	0.973
13	353	21.7	5.5859938073943
13	356	21.8	2.0876113609268
13	357	21.9	0.973
13	358	22	3.9548648058146
12	70	5.3	2.4623159127116
12	71	5.4	2.3122323134785
12	72	5.5	2.5475816357083
12	73	5.6	2.3052673915204
12	74	5.7	2.4625637345446
12	88	5.8	1.9657235288874
12	89	5.9	2.3923279703176
12	90	6	2.4541513125772
12	91	6.1	2.210601288338
12	92	6.2	2.4054226770764
12	93	6.3	2.310982198827
12	94	6.4	2.0975643285317
12	95	6.5	1.426621987205
12	96	6.6	2.0150650135707
12	97	6.7	1.8030174996005
12	102	6.8	1.4269468483282
12	103	6.9	2.4709355429979
12	104	7	1.3392482108204
12	105	7.1	1.7509179581422
12	106	7.2	2.3778175380314
12	107	7.3	2.1344021787401
12	108	7.4	1.6241080194712
12	109	7.5	1.8098201332847
12	110	7.6	2.1774386041798
12	111	7.7	2.5500469468068
12	116	7.8	1.7754437308991
12	117	7.9	1.3533659499604
12	118	8	1.7513725853758
12	119	8.1	1.7744234598242
12	120	8.2	1.3061105647124
12	121	8.3	1.8435945681296
12	122	8.4	2.0613208355848
12	123	8.5	1.9828932433389
12	124	8.6	1.7894368621986
12	125	8.7	2.1605900972383
12	130	8.8	1.722821981064
12	131	8.9	2.1876377318054
12	132	9	1.588150873757
12	133	9.1	1.3655576331774
12	134	9.2	1.7387150715338
12	135	9.3	2.5823568655644
12	136	9.4	1.7903000787599
12	137	9.5	1.7242424796335
12	138	9.6	1.3364715013653
12	139	9.7	1.4583484908799
12	144	9.8	1.937488316698
12	145	9.9	2.5275708992034
12	146	10	2.0134930219268
12	147	10.1	2.5740160259651
12	148	10.2	2.0257758020889
12	149	10.3	1.3265372503782
12	150	10.4	2.1327221903251
12	151	10.5	1.9748384028906
12	152	10.6	1.7047404578654
12	153	10.7	1.4553813389037
12	158	10.8	1.4062938852701
12	159	10.9	2.3181312268833
12	160	11	1.8652544746641
12	175	11.1	1.4753666668199
12	176	11.2	1.9383403507527
12	177	11.3	1.4082601564471
12	178	11.4	1.4024951044004
12	179	11.5	2.4919537673704
12	180	11.6	2.2389658667613
12	181	11.7	2.5878362877294
12	186	11.8	1.5049552971031
12	187	11.9	1.7586736198515
12	188	12	1.5061980411876
12	191	12.1	2.2558507863898
12	192	12.2	2.0828330228571
12	193	12.3	1.88133207059
12	194	12.4	2.3855774012394
12	195	12.5	2.1192494755378
12	196	12.6	0.48164169401337
12	197	12.7	-0.55012963344343
12	202	12.8	-0.17435453934596
12	203	12.9	0.53983910286334
12	204	13	-0.18825512083714
12	207	13.1	-0.4196642158553
12	208	13.2	0.4680109371664
12	209	13.3	-0.64992214438972
12	210	13.4	0.33425250188447
12	211	13.5	-0.32842335586901
12	212	13.6	0.27494851532392
12	213	13.7	0.30011519326363
12	218	13.8	-0.68818514959421
12	219	13.9	1.1210797181353
12	220	14	-0.84606833045836
12	223	14.1	0.46176462902221
12	224	14.2	-0.3427046159748
12	225	14.3	0.55333564279135
12	226	14.4	-0.08244867420288
12	227	14.5	-0.84785725243856
12	228	14.6	0.49003647579811