version 3
run General-0-20250504-17:08:59-12832
attr configname General
attr datetime 20250504-17:08:59
attr datetimef 20250504-170859
attr experiment General
attr inifile omnetpp.ini
attr iterationvars ""
attr iterationvarsd ""
attr iterationvarsf ""
attr measurement ""
attr network BangaloreScenario
attr processid 12832
attr repetition 0
attr replication #0
attr resultdir results
attr runnumber 0
attr seedset 0
config image-path ../../../../../../../OneDrive/Desktop/veins/images
config network BangaloreScenario
config sim-time-limit 3600s
config *.manager.updateInterval 0.1s
config *.manager.host "\"localhost\""
config *.manager.port 9999
config *.manager.moduleType "\"org.car2x.veins.nodes.Car\""
config *.manager.moduleName "\"node\""
config *.manager.autoShutdown true
config *.manager.launchConfig "xmldoc(\"bangalore.launchd.xml\")"
config *.**.BangaloreScenario.worldUtility.playgroundSizeX 3000m
config *.**.BangaloreScenario.worldUtility.playgroundSizeY 3000m
config *.**.BangaloreScenario.worldUtility.playgroundSizeZ 50m
config *.**.BangaloreScenario.playgroundSizeX 3000m
config *.**.BangaloreScenario.playgroundSizeY 3000m
config *.**.BangaloreScenario.playgroundSizeZ 50m
config *.node[*].veinsmobility.setHostState false
config *.node[*].veinsmobility.setHostSpeed false
config *.node[*].mobilityType "\"org.car2x.veins.modules.mobility.traci.TraCIMobility\""
config *.node[*].mobility.updateInterval 0.1s
config *.node[*].mobility.setHostState false
config *.node[*].applType "\"bangalore_v2v.MyBangaloreApp.MyBangaloreApp\""
config *.node[*].nicType "\"org.car2x.veins.modules.nic.Nic80211p\""
config *.node[*].nic.phy80211p.usePropagationDelay true
config *.node[*].nic.phy80211p.thermalNoise -110dBm
config *.node[*].nic.phy80211p.sensitivity -95dBm
config *.node[*].nic.phy80211p.maxTXPower 20mW
config *.node[*].veinsmobility.x 0
config *.node[*].veinsmobility.y 0
config *.node[*].veinsmobility.z 0
config *.node[*].appl.broadcastInterval 1s
config *.**.nic.mac1609_4.useServiceChannel false
config *.**.nic.mac1609_4.txPower 20mW
config *.**.nic.mac1609_4.bitrate 6Mbps
config *.**.nic.phy80211p.minPowerLevel -110dBm
config *.**.nic.phy80211p.useNoiseFloor true
config *.**.nic.phy80211p.noiseFloor -98dBm
config BangaloreScenario.numCars 0
config *.**.nic.phy80211p.decider "xmldoc(\"config.xml\")"
config *.**.nic.phy80211p.analogueModels "xmldoc(\"config.xml\")"
config *.connectionManager.sendDirect false
config *.connectionManager.maxInterfDist 10000m

vector 0 BangaloreScenario.node[0].nic.phy80211p RadioState ETV
vector 1 BangaloreScenario.node[0].nic.phy80211p RadioChannel ETV
vector 2 BangaloreScenario.manager posx ETV
vector 3 BangaloreScenario.manager posy ETV
vector 4 BangaloreScenario.manager speed ETV
vector 5 BangaloreScenario.manager acceleration ETV
vector 6 BangaloreScenario.manager co2emission ETV
vector 7 BangaloreScenario.node[1].nic.phy80211p RadioState ETV
vector 8 BangaloreScenario.node[1].nic.phy80211p RadioChannel ETV
vector 9 BangaloreScenario.manager posx ETV
vector 10 BangaloreScenario.manager posy ETV
vector 11 BangaloreScenario.manager speed ETV
vector 12 BangaloreScenario.manager acceleration ETV
vector 13 BangaloreScenario.manager co2emission ETV
vector 14 BangaloreScenario.node[2].nic.phy80211p RadioState ETV
vector 15 BangaloreScenario.node[2].nic.phy80211p RadioChannel ETV
vector 16 BangaloreScenario.manager posx ETV
vector 17 BangaloreScenario.manager posy ETV
vector 18 BangaloreScenario.manager speed ETV
vector 19 BangaloreScenario.manager acceleration ETV
vector 20 BangaloreScenario.manager co2emission ETV
vector 21 BangaloreScenario.node[3].nic.phy80211p RadioState ETV
vector 22 BangaloreScenario.node[3].nic.phy80211p RadioChannel ETV
vector 23 BangaloreScenario.manager posx ETV
vector 24 BangaloreScenario.manager posy ETV
vector 25 BangaloreScenario.manager speed ETV
vector 26 BangaloreScenario.manager acceleration ETV
vector 27 BangaloreScenario.manager co2emission ETV
vector 28 BangaloreScenario.node[4].nic.phy80211p RadioState ETV
vector 29 BangaloreScenario.node[4].nic.phy80211p RadioChannel ETV
vector 30 BangaloreScenario.manager posx ETV
vector 31 BangaloreScenario.manager posy ETV
vector 32 BangaloreScenario.manager speed ETV
vector 33 BangaloreScenario.manager acceleration ETV
vector 34 BangaloreScenario.manager co2emission ETV
vector 35 BangaloreScenario.node[5].nic.phy80211p RadioState ETV
vector 36 BangaloreScenario.node[5].nic.phy80211p RadioChannel ETV
vector 37 BangaloreScenario.manager posx ETV
vector 38 BangaloreScenario.manager posy ETV
vector 39 BangaloreScenario.manager speed ETV
vector 40 BangaloreScenario.manager acceleration ETV
vector 41 BangaloreScenario.manager co2emission ETV
vector 42 BangaloreScenario.node[6].nic.phy80211p RadioState ETV
vector 43 BangaloreScenario.node[6].nic.phy80211p RadioChannel ETV
vector 44 BangaloreScenario.manager posx ETV
vector 45 BangaloreScenario.manager posy ETV
vector 46 BangaloreScenario.manager speed ETV
vector 47 BangaloreScenario.manager acceleration ETV
vector 48 BangaloreScenario.manager co2emission ETV
6	4	0.3	1.4377461184884
6	5	0.4	1.5713018311443
6	6	0.5	1.6833521092362
6	7	0.6	1.8750484231547
6	17	0.7	1.9732100655802
6	18	0.8	2.2244785304485
6	19	0.9	1.9460095433919
6	29	1	2.2730283353162
6	30	1.1	2.0405059892214
6	31	1.2	2.4045482697933
6	32	1.3	2.4861865308214
6	33	1.4	3.009258305697
6	34	1.5	2.4797292234537
6	35	1.6	3.159601830708
6	45	1.7	3.0716627500608
6	46	1.8	3.5019387345174
6	47	1.9	3.7376625251955
6	57	2	3.1109005055077
6	58	2.1	3.786388420013
6	59	2.2	2.968647477167
6	60	2.3	3.8646360496075
6	61	2.4	3.4506441859261
6	62	2.5	3.0785113908387
6	63	2.6	3.0236835156519
6	73	2.7	3.7371347858139
6	74	2.8	4.0772764086243
6	75	2.9	3.5412883921899
6	85	3	3.9816392011819
6	86	3.1	3.673919382989
6	87	3.2	4.8298196875552
6	88	3.3	5.0523880800782
6	89	3.4	3.5979272021817
6	90	3.5	4.5417113613139
6	91	3.6	4.4016744035838
6	101	3.7	4.5771382028875
6	102	3.8	5.1232375327014
6	103	3.9	6.3121489794699
6	113	4	5.7623846985954
6	114	4.1	4.986258536861
6	115	4.2	5.416333965192
6	116	4.3	5.3965237129347
6	117	4.4	6.7298389182546
6	118	4.5	4.5808347744665
6	119	4.6	6.6498775235175
6	129	4.7	6.9223345607948
6	130	4.8	6.1736293086549
6	131	4.9	7.5880928428865
6	141	5	7.1754979122774
6	142	5.1	7.2737002662501
6	143	5.2	6.9754982293089
6	144	5.3	8.366448129085
6	160	5.4	5.7547146457985
6	161	5.5	5.3053598137749
6	162	5.6	8.5423424838767
6	178	5.7	5.9661403261428
6	179	5.8	5.6855164977887
6	180	5.9	6.4518334915608
6	211	6	8.4555631499581
6	212	6.1	8.843181643411
6	213	6.2	6.8620847562016
6	214	6.3	6.621271267416
6	230	6.4	9.4343107911107
6	231	6.5	8.3922747394123
6	232	6.6	7.6893265082914
6	248	6.7	6.1982045723665
6	249	6.8	8.6888667928856
6	250	6.9	9.5853915124391
6	281	7	7.0556210704824
6	282	7.1	8.3554052538305
6	283	7.2	9.8658105840556
6	284	7.3	6.7762048170142
6	300	7.4	9.1376523954808
6	301	7.5	10.314764178006
6	302	7.6	8.916567055146
6	318	7.7	7.5323466841229
6	319	7.8	10.597888428354
6	320	7.9	10.087050689679
6	351	8	11.602235398909
6	352	8.1	8.2300131389163
6	353	8.2	8.7140798513584
6	354	8.3	9.6182572102752
6	370	8.4	11.084449214434
6	371	8.5	10.719669713529
6	372	8.6	8.5895402034476
6	388	8.7	12.414602011795
6	389	8.8	10.843127177804
6	390	8.9	13.381996567927
6	421	9	13.155425144265
6	422	9.1	12.841456171738
6	423	9.2	8.9057811896635
6	424	9.3	9.3316591089851
6	440	9.4	9.9061194987294
6	441	9.5	9.7110982160636
6	442	9.6	13.802736643836
6	458	9.7	8.7781686905191
6	459	9.8	9.5883100322276
6	460	9.9	13.293836339544
6	491	10	14.703441303858
6	492	10.1	11.046569702151
6	493	10.2	14.277828624915
6	494	10.3	11.746358446294
6	516	10.4	14.660414586313
6	517	10.5	15.60473723058
6	518	10.6	10.0327839457
6	540	10.7	11.462109974822
6	583	10.8	11.911341660126
6	584	10.9	13.961346144542
6	627	11	14.968000381997
6	628	11.1	15.430405888399
6	629	11.2	15.328784207156
6	630	11.3	13.975265004862
6	652	11.4	10.407851480126
6	653	11.5	17.350812543162
6	654	11.6	12.818308787542
6	676	11.7	11.162259904601
6	719	11.8	15.046210465652
6	720	11.9	14.130399997062
6	763	12	17.868216541173
6	764	12.1	12.755582967779
6	765	12.2	15.299011493531
6	766	12.3	13.310874027014
6	788	12.4	17.39393893023
6	789	12.5	12.668066298658
6	790	12.6	11.746062964869
6	812	12.7	1.0531734798304
6	855	12.8	3.8107086409832
6	856	12.9	3.9201657746092
6	899	13	2.8974997556029
6	900	13.1	5.7340722669763
6	901	13.2	3.6542815080776
6	902	13.3	1.5844808839634
6	924	13.4	8.0063006985679
6	925	13.5	4.5968479688657
6	926	13.6	1.9833392338324
6	948	13.7	0.973
6	991	13.8	6.3911163719501
6	992	13.9	3.3583945413392
6	1035	14	2.7488474427896
6	1036	14.1	0.973
6	1037	14.2	0.973
6	1038	14.3	0.973
6	1060	14.4	0.973
6	1061	14.5	0.973
6	1062	14.6	0.973
6	1084	14.7	0.973
6	1127	14.8	0.973
6	1128	14.9	0.973
6	1171	15	0.973
6	1172	15.1	0.973
6	1173	15.2	0.973
6	1174	15.3	0.973
6	1202	15.4	0.973
6	1203	15.5	0.973
6	1231	15.6	0.973
6	1259	15.7	0.973
6	1314	15.8	0.973
6	1315	15.9	0.973
6	1370	16	0.973
6	1398	16.1	0.973
6	1399	16.2	0.973
6	1400	16.3	0.973
6	1428	16.4	0.973
6	1429	16.5	0.973
6	1457	16.6	0.973
6	1485	16.7	0.973
6	1540	16.8	0.973
6	1541	16.9	0.973
6	1596	17	0.973
6	1624	17.1	0.973
6	1625	17.2	0.973
6	1626	17.3	0.973
6	1654	17.4	0.973
6	1655	17.5	0.973
6	1683	17.6	0.973
6	1711	17.7	0.973
6	1766	17.8	0.973
6	1767	17.9	0.973
6	1822	18	0.973
6	1850	18.1	2.7280955998888
6	1851	18.2	0.973
6	1852	18.3	1.4623246930071
6	1880	18.4	1.4659443723185
6	1881	18.5	2.5187984016841
6	1909	18.6	2.0512526130775
6	1937	18.7	0.973
6	1992	18.8	2.001587403388
6	1993	18.9	1.4888832862215
6	2048	19	1.6664636697276
6	2076	19.1	1.753607793835
6	2077	19.2	1.3706527632109
6	2078	19.3	4.1196200059658
6	2106	19.4	4.3338216512253
6	2107	19.5	5.6812472709781
6	2135	19.6	5.6574025690465
6	2163	19.7	6.5056457934288
6	2218	19.8	4.2541602353754
6	2219	19.9	4.867375410832
6	2274	20	5.7000263962787
6	2302	20.1	5.9138127499343
6	2369	20.2	6.3749308468679
6	2370	20.3	5.8786947457887
6	2404	20.4	6.623517698976
6	2405	20.5	5.5223552269144
6	2439	20.6	5.1988019923552
6	2473	20.7	5.2816200927344
6	2540	20.8	5.402718604361
6	2541	20.9	5.6782651127774
6	2608	21	6.0764813329526
6	2642	21.1	5.9517234353037
6	2709	21.2	5.6577385192609
6	2710	21.3	7.8265120289838
6	2744	21.4	8.3730222523168
6	2745	21.5	6.3752010712305
6	2779	21.6	8.4876145410635
6	2813	21.7	9.0828071101121
6	2880	21.8	8.1139278801537
6	2881	21.9	8.0195665397936
6	2948	22	7.7757099301602
6	2982	22.1	7.4411325563608
6	3049	22.2	9.4373598838656
6	3050	22.3	9.1524771601076
6	3084	22.4	10.288642112632
6	3085	22.5	9.3343288259422
6	3119	22.6	10.439621923514
6	3153	22.7	7.8457805989565
6	3220	22.8	6.5304472729666
6	3221	22.9	7.2875060460226
6	3288	23	9.7949545363892
6	3322	23.1	7.6098216367268
6	3389	23.2	8.4405227094791
6	3390	23.3	11.663727302589
6	3424	23.4	10.597802489998
6	3425	23.5	2.0570649725327
6	3459	23.6	4.3831885412359
6	3493	23.7	0.973
6	3560	23.8	2.3569134088764
6	3561	23.9	1.3040925113461
6	3628	24	4.9083441358517
6	3662	24.1	1.7653739939523
6	3729	24.2	1.048979982779
6	3730	24.3	2.4765426633919
6	3764	24.4	3.5096698746274
6	3765	24.5	0.973
6	3799	24.6	3.9440230636191
6	3833	24.7	1.7448735610127
6	3900	24.8	1.1734025421906
6	3901	24.9	1.5708236031016
6	3968	25	4.9377395406372
6	4002	25.1	1.239899962906
6	4081	25.2	4.2484393297014
6	4082	25.3	1.6552068301519
6	4122	25.4	0.973
6	4123	25.5	2.9200706220083
6	4163	25.6	1.2338156788494
6	4203	25.7	3.9452756037878
6	4282	25.8	2.8439421767075
6	4283	25.9	0.973
6	4401	26	0.973
6	4480	26.1	0.973
6	4559	26.2	0.973
6	4560	26.3	0.973
6	4600	26.4	0.973
6	4601	26.5	0.973
6	4641	26.6	0.973
6	4681	26.7	0.973
6	4760	26.8	0.973
6	4761	26.9	0.973
6	4879	27	0.973
6	4958	27.1	0.973
6	5037	27.2	0.973
6	5038	27.3	0.973
6	5078	27.4	0.973
6	5079	27.5	0.973
6	5119	27.6	0.973
6	5159	27.7	0.973
6	5238	27.8	0.973
6	5239	27.9	0.973
6	5357	28	0.973
6	5436	28.1	1.8224414745293
6	5515	28.2	1.7462234617549
6	5516	28.3	0.973
6	5556	28.4	2.630877086207
6	5557	28.5	2.3095069712644
6	5597	28.6	0.973
6	5637	28.7	0.973
6	5716	28.8	1.7393241323756
6	5717	28.9	0.973
6	5835	29	3.1591081826741
6	5914	29.1	5.7636458900374
6	5993	29.2	6.1935562430231
6	5994	29.3	6.4881531741832
6	6034	29.4	4.9606389777787
6	6035	29.5	5.5844811212678
6	6075	29.6	6.4369105858839
6	6115	29.7	5.0876087474733
6	6194	29.8	4.5925745600053
6	6195	29.9	6.1176021573848
6	6313	30	7.1787895153014
6	6392	30.1	6.1741815827721
6	6471	30.2	7.0952728065781
6	6472	30.3	7.9270211846416
6	6512	30.4	5.2129593199549
6	6513	30.5	6.6240482684481
6	6559	30.6	5.5920687592747
6	6605	30.7	8.1761630292869
6	6696	30.8	5.5506219046117
6	6742	30.9	6.2329780832798
6	6878	31	7.0180410477325
6	6969	31.1	6.1470531201522
5	4	0.3	2.5227782611462
5	5	0.4	2.3913321875384
5	6	0.5	2.2647456793603
5	7	0.6	2.4276095240349
5	17	0.7	2.2916625780298
5	18	0.8	2.5344215164987
5	19	0.9	1.6664884685297
5	29	1	2.1295186728844
5	30	1.1	1.5344444137342
5	31	1.2	2.012904180415
5	32	1.3	1.9748638385907
5	33	1.4	2.536921401252
5	34	1.5	1.6644197624875
5	35	1.6	2.3876782166306
5	45	1.7	2.1250225800788
5	46	1.8	2.4492640680401
5	47	1.9	2.5255911291111
5	57	2	1.7843908121809
5	58	2.1	2.3157095496776
5	59	2.2	1.4869633356575
5	60	2.3	2.1880426084623
5	61	2.4	1.7548668551957
5	62	2.5	1.3966282241978
5	63	2.6	1.3120618151035
5	73	2.7	1.8089185756631
5	74	2.8	1.9885440276936
5	75	2.9	1.5419875764288
5	85	3	1.7962171741528
5	86	3.1	1.5348525960464
5	87	3.2	2.2325326326303
5	88	3.3	2.2870639229659
5	89	3.4	1.3311956858728
5	90	3.5	1.8596540211234
5	91	3.6	1.7250115999952
5	101	3.7	1.7771527426783
5	102	3.8	2.0273098416161
5	103	3.9	2.5933179031126
5	113	4	2.2234064544784
5	114	4.1	1.7693011381198
5	115	4.2	1.9373904149048
5	116	4.3	1.8783372915117
5	117	4.4	2.4538008356234
5	118	4.5	1.4006419032114
5	119	4.6	2.304958770494
5	129	4.7	2.3604877096135
5	130	4.8	1.9778820008971
5	131	4.9	2.520886587305
5	141	5	2.2844143953407
5	142	5.1	2.2665570510551
5	143	5.2	2.0956227248534
5	144	5.3	2.5779598564608
5	160	5.4	1.5354645496001
5	161	5.5	1.3423833534354
5	162	5.6	2.5030969839776
5	178	5.7	1.5239654132863
5	179	5.8	1.3999055969762
5	180	5.9	1.647696577711
5	211	6	2.3076350883115
5	212	6.1	2.3875655513257
5	213	6.2	1.6817170715891
5	214	6.3	1.5755061051575
5	230	6.4	2.4562649028376
5	231	6.5	2.0757247052388
5	232	6.6	1.8186946440488
5	248	6.7	1.3287125359057
5	249	6.8	2.0711696933256
5	250	6.9	2.301566456561
5	281	7	1.5121217192616
5	282	7.1	1.8713770024944
5	283	7.2	2.2749604509445
5	284	7.3	1.3570906199748
5	300	7.4	2.0049406133592
5	301	7.5	2.2969292026013
5	302	7.6	1.8753374915803
5	318	7.7	1.4730459484737
5	319	7.8	2.2724647385534
5	320	7.9	2.0992807862349
5	351	8	2.4566862861393
5	352	8.1	1.5519108337816
5	353	8.2	1.6553716436494
5	354	8.3	1.8606211043894
5	370	8.4	2.196903877589
5	371	8.5	2.0729262706358
5	372	8.6	1.5265198461712
5	388	8.7	2.4231671048328
5	389	8.8	2.0128335082904
5	390	8.9	2.5738025467843
5	421	9	2.4776193857426
5	422	9.1	2.3657124478836
5	423	9.2	1.4466357906349
5	424	9.3	1.5258882674621
5	440	9.4	1.6357196343364
5	441	9.5	1.5736574145034
5	442	9.6	2.4414880499011
5	458	9.7	1.3276523664827
5	459	9.8	1.4873702042503
5	460	9.9	2.2531004415592
5	491	10	2.5129802494543
5	492	10.1	1.7223074501613
5	493	10.2	2.360862417263
5	494	10.3	1.8162483868189
5	516	10.4	2.3761831316864
5	517	10.5	2.5273815787165
5	518	10.6	1.4010386305163
5	540	10.7	1.665538517409
5	583	10.8	1.7337677868549
5	584	10.9	2.1056890492793
5	627	11	2.2684262131574
5	628	11.1	2.3239350897493
5	629	11.2	2.2732888697647
5	630	11.3	1.9950189980446
5	652	11.4	1.3207524630008
5	653	11.5	2.5631387459813
5	654	11.6	1.7175660141045
5	676	11.7	1.4042712009279
5	719	11.8	2.0769173276611
5	720	11.9	1.8915326801362
5	763	12	2.516576019628
5	764	12.1	1.6053537485655
5	765	12.2	2.0229636409553
5	766	12.3	1.6628260320751
5	788	12.4	2.3307808822487
5	789	12.5	1.5147111537401
5	790	12.6	1.3470683438015
5	812	12.7	-0.44390028223862
5	855	12.8	0.018935480481019
5	856	12.9	0.037167247291663
5	899	13	-0.13405159220564
5	900	13.1	0.34055868706201
5	901	13.2	-0.0081748536089776
5	902	13.3	-0.35448810032101
5	924	13.4	0.71925090015863
5	925	13.5	0.1477090294706
5	926	13.6	-0.28894324628638
5	948	13.7	-0.77951108592096
5	991	13.8	0.45135719773825
5	992	13.9	-0.057240448310054
5	1035	14	-0.15904817315747
5	1036	14.1	-4.5
5	1037	14.2	-4.2245762070283
5	1038	14.3	-4.5
5	1060	14.4	-4.5
5	1061	14.5	-4.0518684870098
5	1062	14.6	-4.5
5	1084	14.7	-4.5
5	1127	14.8	-4.4882951494539
5	1128	14.9	-4.5
5	1171	15	-4.5
5	1172	15.1	-4.4426582447486
5	1173	15.2	-4.5
5	1174	15.3	-4.5
5	1202	15.4	-4.5
5	1203	15.5	-4.5
5	1231	15.6	-4.5
5	1259	15.7	-4.5
5	1314	15.8	-4.5
5	1315	15.9	-4.5
5	1370	16	-4.2701490547741
5	1398	16.1	-4.5
5	1399	16.2	-4.5
5	1400	16.3	-4.5
5	1428	16.4	-4.5
5	1429	16.5	-4.5
5	1457	16.6	-4.5
5	1485	16.7	-4.5
5	1540	16.8	-4.5
5	1541	16.9	-4.5
5	1596	17	-4.5
5	1624	17.1	-4.5
5	1625	17.2	-4.5
5	1626	17.3	-4.5
5	1654	17.4	-4.5
5	1655	17.5	-4.5
5	1683	17.6	-4.5
5	1711	17.7	-4.5
5	1766	17.8	-4.5
5	1767	17.9	-4.5
5	1822	18	-0.67439258818061
5	1850	18.1	0.70358912125229
5	1851	18.2	-1.0299019381404
5	1852	18.3	-0.015698678302583
5	1880	18.4	-0.013555045519018
5	1881	18.5	0.58956595039926
5	1909	18.6	0.31829167620745
5	1937	18.7	-0.91858300399036
5	1992	18.8	0.29464521592018
5	1993	18.9	-0.0012809858657459
5	2048	19	0.10071463112254
5	2076	19.1	0.15008963756263
5	2077	19.2	-0.07000160971657
5	2078	19.3	1.4771120201563
5	2106	19.4	1.5593118736753
5	2107	19.5	2.229622244928
5	2135	19.6	2.1495511898538
5	2163	19.7	2.5047667042818
5	2218	19.8	1.3388890681788
5	2219	19.9	1.6077916391194
5	2274	20	1.9626325945137
5	2302	20.1	2.0114652232034
5	2369	20.2	2.1667176323012
5	2370	20.3	1.8950140606379
5	2404	20.4	2.1697520451853
5	2405	20.5	1.6553734902991
5	2439	20.6	1.4890077127609
5	2473	20.7	1.4964233590756
5	2540	20.8	1.5188459897414
5	2541	20.9	1.6013400302036
5	2608	21	1.7274763863766
5	2642	21.1	1.6469131596619
5	2709	21.2	1.5060846358305
5	2710	21.3	2.2854176430963
5	2744	21.4	2.4302219065372
5	2745	21.5	1.6635986943962
5	2779	21.6	2.3746481880546
5	2813	21.7	2.5241095046513
5	2880	21.8	2.1413464629557
5	2881	21.9	2.0674303963082
5	2948	22	1.9485731412191
5	2982	22.1	1.8061260433169
5	3049	22.2	2.4053003768669
5	3050	22.3	2.267310655443
5	3084	22.4	2.5673678582767
5	3085	22.5	2.2286264948547
5	3119	22.6	2.5107559222262
5	3153	22.7	1.7101971354568
5	3220	22.8	1.306212358363
5	3221	22.9	1.5068043461302
5	3288	23	2.1915223166579
5	3322	23.1	1.548100555921
5	3389	23.2	1.7558296897449
5	3390	23.3	2.5999174537603
5	3424	23.4	2.267299042223
5	3425	23.5	-0.035479434223227
5	3459	23.6	0.58781431342942
5	3493	23.7	-0.4361758994637
5	3560	23.8	0.044728328241028
5	3561	23.9	-0.23848974648862
5	3628	24	0.72814325874205
5	3662	24.1	-0.11547482092865
5	3729	24.2	-0.30763909756205
5	3730	24.3	0.076440585684026
5	3764	24.4	0.35256813219748
5	3765	24.5	-0.44517058744095
5	3799	24.6	0.46904157320968
5	3833	24.7	-0.12103868168778
5	3900	24.8	-0.27421444407665
5	3901	24.9	-0.16692244964652
5	3968	25	0.73445446628611
5	4002	25.1	-0.25675560352392
5	4081	25.2	0.54769446519204
5	4082	25.3	-0.14606236943511
5	4122	25.4	-0.86272423253394
5	4123	25.5	0.19568019139115
5	4163	25.6	-0.25765838851221
5	4203	25.7	0.47021731033457
5	4282	25.8	0.17357502798548
5	4283	25.9	-0.40689521110616
5	4401	26	-1.6447176718811
5	4480	26.1	-3.6026541396277
5	4559	26.2	-4.4689518823521
5	4560	26.3	-4.5
5	4600	26.4	-4.5
5	4601	26.5	-4.5
5	4641	26.6	-4.5
5	4681	26.7	-4.5
5	4760	26.8	-4.5
5	4761	26.9	-4.5
5	4879	27	-4.4318598682527
5	4958	27.1	-4.5
5	5037	27.2	-4.5
5	5038	27.3	-4.5
5	5078	27.4	-4.5
5	5079	27.5	-4.5
5	5119	27.6	-4.5
5	5159	27.7	-4.5
5	5238	27.8	-4.5
5	5239	27.9	-0.65895577697087
5	5357	28	-0.53033512851689
5	5436	28.1	0.19334690487012
5	5515	28.2	0.14830420608632
5	5516	28.3	-0.27474563114811
5	5556	28.4	0.65538886762224
5	5557	28.5	0.46570608892944
5	5597	28.6	-0.18324560942128
5	5637	28.7	-0.2089500667993
5	5716	28.8	0.1409852320794
5	5717	28.9	-0.98321338626556
5	5835	29	0.95629259028938
5	5914	29.1	2.3656493975548
5	5993	29.2	2.5112010973738
5	5994	29.3	2.5746821876615
5	6034	29.4	1.7358635865385
5	6035	29.5	1.9978159122867
5	6075	29.6	2.3476496917428
5	6115	29.7	1.6575858970871
5	6194	29.8	1.3958321520127
5	6195	29.9	2.053735314752
5	6313	30	2.4632722997339
5	6392	30.1	1.9689447691198
5	6471	30.2	2.3065734611824
5	6472	30.3	2.5833849457791
5	6512	30.4	1.4347570260055
5	6513	30.5	1.9664169136435
5	6559	30.6	1.525964243128
5	6605	30.7	2.4793437642744
5	6696	30.8	1.4433793524047
5	6742	30.9	1.6721094863024
5	6878	31	1.9267319109989
5	6969	31.1	1.5789946682518
4	3	0.2	0.24714285032102
4	4	0.3	0.49942067643564
4	5	0.4	0.73855389518948
4	6	0.5	0.96502846312551
4	7	0.6	1.207789415529
4	17	0.7	1.436955673332
4	18	0.8	1.6903978249819
4	19	0.9	1.8570466718348
4	29	1	2.0699985391233
4	30	1.1	2.2234429804967
4	31	1.2	2.4247333985382
4	32	1.3	2.6222197823973
4	33	1.4	2.8759119225225
4	34	1.5	3.0423538987712
4	35	1.6	3.2811217204343
4	45	1.7	3.4936239784422
4	46	1.8	3.7385503852462
4	47	1.9	3.9911094981573
4	57	2	4.1695485793754
4	58	2.1	4.4011195343431
4	59	2.2	4.5498158679089
4	60	2.3	4.7686201287551
4	61	2.4	4.9441068142747
4	62	2.5	5.0837696366945
4	63	2.6	5.2149758182048
4	73	2.7	5.3958676757711
4	74	2.8	5.5947220785405
4	75	2.9	5.7489208361834
4	85	3	5.9285425535986
4	86	3.1	6.0820278132033
4	87	3.2	6.3052810764663
4	88	3.3	6.5339874687629
4	89	3.4	6.6671070373502
4	90	3.5	6.8530724394625
4	91	3.6	7.025573599462
4	101	3.7	7.2032888737299
4	102	3.8	7.4060198578915
4	103	3.9	7.6653516482027
4	113	4	7.8876922936506
4	114	4.1	8.0646224074626
4	115	4.2	8.258361448953
4	116	4.3	8.4461951781042
4	117	4.4	8.6915752616665
4	118	4.5	8.8316394519877
4	119	4.6	9.0621353290371
4	129	4.7	9.2981840999984
4	130	4.8	9.4959723000881
4	131	4.9	9.7480609588186
4	141	5	9.9765023983527
4	142	5.1	10.203158103458
4	143	5.2	10.412720375944
4	144	5.3	10.67051636159
4	160	5.4	10.82406281655
4	161	5.5	10.958301151893
4	162	5.6	11.208610850291
4	178	5.7	11.36100739162
4	179	5.8	11.500997951317
4	180	5.9	11.665767609088
4	211	6	11.896531117919
4	212	6.1	12.135287673052
4	213	6.2	12.303459380211
4	214	6.3	12.461009990727
4	230	6.4	12.70663648101
4	231	6.5	12.914208951534
4	232	6.6	13.096078415939
4	248	6.7	13.22894966953
4	249	6.8	13.436066638862
4	250	6.9	13.666223284518
4	281	7	13.817435456445
4	282	7.1	14.004573156694
4	283	7.2	14.232069201788
4	284	7.3	14.367778263786
4	300	7.4	14.568272325122
4	301	7.5	14.797965245382
4	302	7.6	14.98549899454
4	318	7.7	15.132803589387
4	319	7.8	15.360050063243
4	320	7.9	15.569978141866
4	351	8	15.81564677048
4	352	8.1	15.970837853858
4	353	8.2	16.136375018223
4	354	8.3	16.322437128662
4	370	8.4	16.542127516421
4	371	8.5	16.749420143485
4	372	8.6	16.902072128102
4	388	8.7	17.144388838585
4	389	8.8	17.345672189414
4	390	8.9	17.603052444093
4	421	9	17.850814382667
4	422	9.1	18.087385627455
4	423	9.2	18.232049206519
4	424	9.3	18.384638033265
4	440	9.4	18.548209996699
4	441	9.5	18.705575738149
4	442	9.6	18.949724543139
4	458	9.7	19.082489779787
4	459	9.8	19.231226800212
4	460	9.9	19.456536844368
4	491	10	19.707834869314
4	492	10.1	19.88006561433
4	493	10.2	20.116151856056
4	494	10.3	20.297776694738
4	516	10.4	20.535395007907
4	517	10.5	20.788133165778
4	518	10.6	20.92823702883
4	540	10.7	21.094790880571
4	583	10.8	21.268167659256
4	584	10.9	21.478736564184
4	627	11	21.7055791855
4	628	11.1	21.937972694475
4	629	11.2	22.165301581451
4	630	11.3	22.364803481256
4	652	11.4	22.496878727556
4	653	11.5	22.753192602154
4	654	11.6	22.924949203564
4	676	11.7	23.065376323657
4	719	11.8	23.273068056423
4	720	11.9	23.462221324437
4	763	12	23.7138789264
4	764	12.1	23.874414301256
4	765	12.2	24.076710665352
4	766	12.3	24.242993268559
4	788	12.4	24.476071356784
4	789	12.5	24.627542472158
4	790	12.6	24.762249306538
4	812	12.7	24.717859278315
4	855	12.8	24.719752826363
4	856	12.9	24.723469551092
4	899	13	24.710064391871
4	900	13.1	24.744120260577
4	901	13.2	24.743302775217
4	902	13.3	24.707853965184
4	924	13.4	24.7797790552
4	925	13.5	24.794549958147
4	926	13.6	24.765655633519
4	948	13.7	24.687704524927
4	991	13.8	24.7328402447
4	992	13.9	24.727116199869
4	1035	14	24.711211382554
4	1036	14.1	24.261211382554
4	1037	14.2	23.838753761851
4	1038	14.3	23.388753761851
4	1060	14.4	22.938753761851
4	1061	14.5	22.53356691315
4	1062	14.6	22.08356691315
4	1084	14.7	21.63356691315
4	1127	14.8	21.184737398205
4	1128	14.9	20.734737398205
4	1171	15	20.284737398205
4	1172	15.1	19.84047157373
4	1173	15.2	19.39047157373
4	1174	15.3	18.94047157373
4	1202	15.4	18.49047157373
4	1203	15.5	18.04047157373
4	1231	15.6	17.59047157373
4	1259	15.7	17.14047157373
4	1314	15.8	16.69047157373
4	1315	15.9	16.24047157373
4	1370	16	15.813456668252
4	1398	16.1	15.363456668252
4	1399	16.2	14.913456668252
4	1400	16.3	14.463456668252
4	1428	16.4	14.013456668252
4	1429	16.5	13.563456668252
4	1457	16.6	13.113456668252
4	1485	16.7	12.663456668252
4	1540	16.8	12.213456668252
4	1541	16.9	11.763456668252
4	1596	17	11.313456668252
4	1624	17.1	10.863456668252
4	1625	17.2	10.413456668252
4	1626	17.3	9.9634566682522
4	1654	17.4	9.5134566682522
4	1655	17.5	9.0634566682522
4	1683	17.6	8.6134566682522
4	1711	17.7	8.1634566682522
4	1766	17.8	7.7134566682522
4	1767	17.9	7.2634566682522
4	1822	18	7.1960174094342
4	1850	18.1	7.2663763215594
4	1851	18.2	7.1633861277454
4	1852	18.3	7.1618162599151
4	1880	18.4	7.1604607553632
4	1881	18.5	7.2194173504031
4	1909	18.6	7.2512465180239
4	1937	18.7	7.1593882176248
4	1992	18.8	7.1888527392169
4	1993	18.9	7.1887246406303
4	2048	19	7.1987961037425
4	2076	19.1	7.2138050674988
4	2077	19.2	7.2068049065272
4	2078	19.3	7.3545161085428
4	2106	19.4	7.5104472959103
4	2107	19.5	7.7334095204031
4	2135	19.6	7.9483646393885
4	2163	19.7	8.1988413098167
4	2218	19.8	8.3327302166346
4	2219	19.9	8.4935093805465
4	2274	20	8.6897726399979
4	2302	20.1	8.8909191623182
4	2369	20.2	9.1075909255483
4	2370	20.3	9.2970923316121
4	2404	20.4	9.5140675361306
4	2405	20.5	9.6796048851606
4	2439	20.6	9.8285056564367
4	2473	20.7	9.9781479923442
4	2540	20.8	10.130032591318
4	2541	20.9	10.290166594339
4	2608	21	10.462914232976
4	2642	21.1	10.627605548943
4	2709	21.2	10.778214012526
4	2710	21.3	11.006755776835
4	2744	21.4	11.249777967489
4	2745	21.5	11.416137836929
4	2779	21.6	11.653602655734
4	2813	21.7	11.906013606199
4	2880	21.8	12.120148252495
4	2881	21.9	12.326891292126
4	2948	22	12.521748606247
4	2982	22.1	12.702361210579
4	3049	22.2	12.942891248266
4	3050	22.3	13.16962231381
4	3084	22.4	13.426359099638
4	3085	22.5	13.649221749123
4	3119	22.6	13.900297341346
4	3153	22.7	14.071317054892
4	3220	22.8	14.201938290728
4	3221	22.9	14.352618725341
4	3288	23	14.571770957007
4	3322	23.1	14.726581012599
4	3389	23.2	14.902163981573
4	3390	23.3	15.162155726949
4	3424	23.4	15.388885631172
4	3425	23.5	15.385337687749
4	3459	23.6	15.444119119092
4	3493	23.7	15.400501529146
4	3560	23.8	15.40497436197
4	3561	23.9	15.381125387321
4	3628	24	15.453939713195
4	3662	24.1	15.442392231102
4	3729	24.2	15.411628321346
4	3730	24.3	15.419272379915
4	3764	24.4	15.454529193134
4	3765	24.5	15.41001213439
4	3799	24.6	15.456916291711
4	3833	24.7	15.444812423542
4	3900	24.8	15.417390979135
4	3901	24.9	15.40069873417
4	3968	25	15.474144180799
4	4002	25.1	15.448468620446
4	4081	25.2	15.503238066966
4	4082	25.3	15.488631830022
4	4122	25.4	15.402359406769
4	4123	25.5	15.421927425908
4	4163	25.6	15.396161587057
4	4203	25.7	15.44318331809
4	4282	25.8	15.460540820889
4	4283	25.9	15.419851299778
4	4401	26	15.25537953259
4	4480	26.1	14.895114118627
4	4559	26.2	14.448218930392
4	4560	26.3	13.998218930392
4	4600	26.4	13.548218930392
4	4601	26.5	13.098218930392
4	4641	26.6	12.648218930392
4	4681	26.7	12.198218930392
4	4760	26.8	11.748218930392
4	4761	26.9	11.298218930392
4	4879	27	10.855032943567
4	4958	27.1	10.405032943567
4	5037	27.2	9.9550329435666
4	5038	27.3	9.5050329435666
4	5078	27.4	9.0550329435666
4	5079	27.5	8.6050329435666
4	5119	27.6	8.1550329435666
4	5159	27.7	7.7050329435666
4	5238	27.8	7.2550329435666
4	5239	27.9	7.1891373658695
4	5357	28	7.1361038530178
4	5436	28.1	7.1554385435048
4	5515	28.2	7.1702689641135
4	5516	28.3	7.1427944009987
4	5556	28.4	7.2083332877609
4	5557	28.5	7.2549038966538
4	5597	28.6	7.2365793357117
4	5637	28.7	7.2156843290318
4	5716	28.8	7.2297828522397
4	5717	28.9	7.1314615136132
4	5835	29	7.2270907726421
4	5914	29.1	7.4636557123976
4	5993	29.2	7.714775822135
4	5994	29.3	7.9722440409011
4	6034	29.4	8.145830399555
4	6035	29.5	8.3456119907836
4	6075	29.6	8.5803769599579
4	6115	29.7	8.7461355496666
4	6194	29.8	8.8857187648679
4	6195	29.9	9.0910922963431
4	6313	30	9.3374195263165
4	6392	30.1	9.5343140032285
4	6471	30.2	9.7649713493467
4	6472	30.3	10.023309843925
4	6512	30.4	10.166785546525
4	6513	30.5	10.36342723789
4	6559	30.6	10.516023662202
4	6605	30.7	10.76395803863
4	6696	30.8	10.90829597387
4	6742	30.9	11.0755069225
4	6878	31	11.2681801136
4	6969	31.1	11.426079580426
3	2	0.1	396.74225784379
3	3	0.2	396.76678923266
3	4	0.3	396.81636170789
3	5	0.4	396.8896705363
3	6	0.5	396.98545922075
3	7	0.6	397.10534434707
3	17	0.7	397.24797650645
3	18	0.8	397.41576532309
3	19	0.9	397.60009569723
3	29	1	397.8055636647
3	30	1.1	398.02626252094
3	31	1.2	398.26694145557
3	32	1.3	398.5272228803
3	33	1.4	398.81268577614
3	34	1.5	399.11466969551
3	35	1.6	399.44035369876
3	45	1.7	399.78713066715
3	46	1.8	400.15821902033
3	47	1.9	400.55437638038
3	57	2	400.96824559608
3	58	2.1	401.40510053499
3	59	2.2	401.85671506568
3	60	2.3	402.33004809805
3	61	2.4	402.8207999314
3	62	2.5	403.3254146906
3	63	2.6	403.84305296984
3	73	2.7	404.3786465672
3	74	2.8	404.93397844418
3	75	2.9	405.50461608332
3	85	3	406.09308296654
3	86	3.1	406.69678479014
3	87	3.2	407.32264672321
3	88	3.3	407.97121004311
3	89	3.4	408.63298680576
3	90	3.5	409.31322248637
3	91	3.6	410.01058062482
3	101	3.7	410.72557877388
3	102	3.8	411.46069999185
3	103	3.9	412.22156247237
3	113	4	413.00449447596
3	114	4.1	413.80498855516
3	115	4.2	414.62471316343
3	116	4.3	415.46308213972
3	117	4.4	416.32580753272
3	118	4.5	417.20243569134
3	119	4.6	418.10194286096